 Fermi distribution function

Calculation with static geometry


********************************************************************************
 iSCC Total electronic   Diff electronic      SCC error    
    1   -0.64888649E+00    0.00000000E+00    0.33306691E-15
********************************************************************************

 Total charge:     0.00000000

 Atomic gross charges (e)
 Atom           Charge
    1      -0.00000000
    2       0.00000000

Nr. of electrons (up):      2.00000000
Atom populations (up)
 Atom       Population
    1       1.00000000
    2       1.00000000

l-shell populations (up)
 Atom Sh.   l       Population
    1   1   0       1.00000000
    2   1   0       1.00000000

Orbital populations (up)
 Atom Sh.   l   m       Population  Label
    1   1   0   0       1.00000000  s
    2   1   0   0       1.00000000  s

Fermi level:                        -0.1652475256 H           -4.4966 eV
Band energy:                        -0.6488864864 H          -17.6571 eV
TS:                                  0.0000000000 H            0.0000 eV
Band free energy (E-TS):            -0.6488864864 H          -17.6571 eV
Extrapolated E(0K):                 -0.6488864864 H          -17.6571 eV
Input / Output electrons (q):      2.0000000000      2.0000000000

Energy H0:                          -0.6488864864 H          -17.6571 eV
Energy SCC:                          0.0000000000 H            0.0000 eV
Total Electronic energy:            -0.6488864864 H          -17.6571 eV
Repulsive energy:                   -0.0008715158 H           -0.0237 eV
Total energy:                       -0.6497580023 H          -17.6808 eV
Extrapolated to 0:                  -0.6497580023 H          -17.6808 eV
Total Mermin free energy:           -0.6497580023 H          -17.6808 eV
Force related energy:               -0.6497580023 H          -17.6808 eV

Non-constrained calculation

SCC converged

Dipole moment:    0.00000000    0.00000000    0.00000000 au
Dipole moment:    0.00000000    0.00000000    0.00000000 Debye


