|===============================================================================
|
|  DFTB+ development version (commit: 9ff48d33, base: 23.1)
|
|  Copyright (C) 2006 - 2023  DFTB+ developers group
|
|===============================================================================
|
|  When publishing results obtained with DFTB+, please cite the following
|  reference:
|
|  * DFTB+, a software package for efficient approximate density functional
|    theory based atomistic simulations, J. Chem. Phys. 152, 124101 (2020).
|    [doi: 10.1063/1.5143190]
|
|  You should also cite additional publications crediting the parametrization
|  data you use. Please consult the documentation of the SK-files for the
|  references.
|
|===============================================================================

Reading input file 'dftb_in.hsd'
Parser version: 14

--------------------------------------------------------------------------------
***  Converting input from parser version  8 to parser version 14 ...
***  Done.

Reading SK-files:
/home/matias/Documents/GitHub/proyecto_MPI/dftbplus/external/slakos/origin/mio-1-1/H-H.skf
Done.
WARNING!
-> Settings will be read but ignored (compiled without MPI support)
Path: dftbplusinput/Parallel
Line: 43-51 (File: dftb_in.hsd)

WARNING!
-> Settings will be read but ignored (compiled without SCALAPACK support)
Path: dftbplusinput/Parallel/Blacs
Line: 48-50 (File: dftb_in.hsd)



Processed input in HSD format written to 'dftb_pin.hsd'

Starting initialization...
--------------------------------------------------------------------------------
OpenMP threads:              8
Chosen random seed:          4606677
Current stacksize:           8 [Mb] (recommended: unlimited)
WARNING!
-> Current stacksize not set to unlimited or hard limit, which might cause
   random crashes (e.g. segmentation faults). It is advised to unlimit the
   stacksize by issuing 'ulimit -s unlimited' (Linux) or setting it to the 
   hard limit by 'ulimit -s hard' (Mac) in advance.
Mode:                        Static calculation
Self consistent charges:     Yes
SCC-tolerance:                 0.100000E-09
Max. scc iterations:                    100
Shell resolved Hubbard:      No
Spin polarisation:           No
Nr. of up electrons:             1.000000
Nr. of down electrons:           1.000000
Periodic boundaries:         No
Electronic solver:           Relatively robust
Mixer:                       Broyden mixer
Mixing parameter:                  0.200000
Maximal SCC-cycles:                     100
Nr. of chrg. vec. in memory:            100
Electronic temperature:              0.865016E-03 H      0.235383E-01 eV
Initial charges:             Set automatically (system chrg:   0.000E+00)
Included shells:             H:  s
Extra options:
                             Mulliken analysis

--------------------------------------------------------------------------------

***  Geometry step: 0

 iSCC Total electronic   Diff electronic      SCC error    
    1    0.00000000E+00    0.00000000E+00    0.33306691E-15
>> Charges saved for restart in charges.bin

Total Energy:                       -0.6497580023 H          -17.6808 eV
Extrapolated to 0K:                 -0.6497580023 H          -17.6808 eV
Total Mermin free energy:           -0.6497580023 H          -17.6808 eV
Force related energy:               -0.6497580023 H          -17.6808 eV

S inverted

Starting electronic dynamics...
--------------------------------------------------------------------------------
 write from mainloop dynamics

           1
           1           1               (1.2695358055696773,0.0000000000000000)
           1           2             (-0.58496611530393117,0.0000000000000000)
           2           1             (-0.58496611530393117,0.0000000000000000)
           2           2               (1.2695358055696773,0.0000000000000000)
Step        1  elapsed loop time:   0.000000  average time per loop   0.000000
 write from mainloop dynamics

           2
           1           1               (1.2695358055696773,0.0000000000000000)
           1           2             (-0.58496611530393117,0.0000000000000000)
           2           1             (-0.58496611530393117,0.0000000000000000)
           2           2               (1.2695358055696773,0.0000000000000000)
Step        2  elapsed loop time:   0.001000  average time per loop   0.000333
 write from mainloop dynamics

           3
           1           1               (1.2695358055696773,0.0000000000000000)
           1           2             (-0.58496611530393117,0.0000000000000000)
           2           1             (-0.58496611530393117,0.0000000000000000)
           2           2               (1.2695358055696773,0.0000000000000000)
Step        3  elapsed loop time:   0.001000  average time per loop   0.000250
 write from mainloop dynamics

           4
           1           1               (1.2695358055696773,0.0000000000000000)
           1           2             (-0.58496611530393117,0.0000000000000000)
           2           1             (-0.58496611530393117,0.0000000000000000)
           2           2               (1.2695358055696773,0.0000000000000000)
Step        4  elapsed loop time:   0.001000  average time per loop   0.000200
 write from mainloop dynamics

           5
           1           1               (1.2695358055696773,0.0000000000000000)
           1           2             (-0.58496611530393117,0.0000000000000000)
           2           1             (-0.58496611530393117,0.0000000000000000)
           2           2               (1.2695358055696773,0.0000000000000000)
Step        5  elapsed loop time:   0.001000  average time per loop   0.000167
 write from mainloop dynamics

           6
           1           1               (1.2695358055696773,0.0000000000000000)
           1           2             (-0.58496611530393117,0.0000000000000000)
           2           1             (-0.58496611530393117,0.0000000000000000)
           2           2               (1.2695358055696773,0.0000000000000000)
Step        6  elapsed loop time:   0.001000  average time per loop   0.000143
 write from mainloop dynamics

           7
           1           1               (1.2695358055696773,0.0000000000000000)
           1           2             (-0.58496611530393117,0.0000000000000000)
           2           1             (-0.58496611530393117,0.0000000000000000)
           2           2               (1.2695358055696773,0.0000000000000000)
Step        7  elapsed loop time:   0.001000  average time per loop   0.000125
 write from mainloop dynamics

           8
           1           1               (1.2695358055696773,0.0000000000000000)
           1           2             (-0.58496611530393117,0.0000000000000000)
           2           1             (-0.58496611530393117,0.0000000000000000)
           2           2               (1.2695358055696773,0.0000000000000000)
Step        8  elapsed loop time:   0.001000  average time per loop   0.000111
 write from mainloop dynamics

           9
           1           1               (1.2695358055696773,0.0000000000000000)
           1           2             (-0.58496611530393117,0.0000000000000000)
           2           1             (-0.58496611530393117,0.0000000000000000)
           2           2               (1.2695358055696773,0.0000000000000000)
Step        9  elapsed loop time:   0.001000  average time per loop   0.000100
 write from mainloop dynamics

          10
           1           1               (1.2695358055696773,0.0000000000000000)
           1           2             (-0.58496611530393117,0.0000000000000000)
           2           1             (-0.58496611530393117,0.0000000000000000)
           2           2               (1.2695358055696773,0.0000000000000000)
Step       10  elapsed loop time:   0.001000  average time per loop   0.000091
Dynamics finished OK!

--------------------------------------------------------------------------------
DFTB+ running times                          cpu [s]             wall clock [s]
--------------------------------------------------------------------------------
Pre-SCC initialisation                 +       0.82 ( 65.6%)       0.12 ( 56.7%)
SCC                                    +       0.20 ( 16.1%)       0.05 ( 25.0%)
Post-geometry optimisation             +       0.22 ( 18.0%)       0.04 ( 17.8%)
--------------------------------------------------------------------------------
Missing                                +       0.00 (  0.3%)       0.00 (  0.5%)
Total                                  =       1.25 (100.0%)       0.21 (100.0%)
--------------------------------------------------------------------------------
